 Gaussian 16, Revision C.01,

 ----------------------------------------------------------------------
 # B3LYP/6-31+G(d,p) empiricaldispersion=GD3 int=(grid=ultrafine) opt f
 req=noraman
 ----------------------------------------------------------------------

 -------------
 Molecule Name
 -------------
 Symbolic Z-matrix:
 Charge =  0 Multiplicity = 1

 SCF Done:  E(RB3LYP) =  -1063.53451650     A.U. after   19 cycles
 SCF Done:  E(RB3LYP) =  -1063.91178913     A.U. after   15 cycles
 SCF Done:  E(RB3LYP) =  -1064.23231381     A.U. after   15 cycles
 SCF Done:  E(RB3LYP) =  -1064.23699433     A.U. after   15 cycles
 SCF Done:  E(RB3LYP) =  -1064.28714175     A.U. after   12 cycles
 SCF Done:  E(RB3LYP) =  -1064.31979340     A.U. after   14 cycles
 SCF Done:  E(RB3LYP) =  -1064.32462052     A.U. after   16 cycles
 SCF Done:  E(RB3LYP) =  -1064.32773496     A.U. after   16 cycles
 SCF Done:  E(RB3LYP) =  -1064.32992045     A.U. after   15 cycles
 SCF Done:  E(RB3LYP) =  -1064.33022624     A.U. after   15 cycles
 SCF Done:  E(RB3LYP) =  -1064.33188584     A.U. after   12 cycles
 SCF Done:  E(RB3LYP) =  -1064.33188918     A.U. after   12 cycles
 SCF Done:  E(RB3LYP) =  -1064.33189002     A.U. after   11 cycles
 SCF Done:  E(RB3LYP) =  -1064.33189073     A.U. after   11 cycles
 SCF Done:  E(RB3LYP) =  -1064.33189090     A.U. after   10 cycles
 SCF Done:  E(RB3LYP) =  -1064.33189094     A.U. after    9 cycles
 SCF Done:  E(RB3LYP) =  -1064.33189097     A.U. after    9 cycles
 Optimization completed.
    -- Stationary point found.
 Normal termination of Gaussian 16 at Sat Nov 12 17:32:03 2022.

 ----------------------------------------------------------------------
 #N Geom=AllCheck Guess=TCheck SCRF=Check GenChk RB3LYP/6-31+G(d,p) Fre
 q
 ----------------------------------------------------------------------

 Structure from the checkpoint file:  "RW03_Azidobocphenylalanine_1.chk"
 -------------
 Molecule Name
 -------------
 Charge =  0 Multiplicity = 1

 SCF Done:  E(RB3LYP) =  -1064.33189097     A.U. after    1 cycles

  Exact polarizability:     263.974     -24.830     223.421      12.909     -10.688     151.928
 Approx polarizability:     341.573     -48.229     386.031      27.787     -29.932     237.982

                      1                      2                      3
                      A                      A                      A
 Frequencies --     13.1223                20.2803                28.6672
 Red. masses --      5.1674                 3.6445                 4.6444
 Frc consts  --      0.0005                 0.0009                 0.0022
 IR Inten    --      0.0271                 0.1325                 0.1168

                      4                      5                      6
                      A                      A                      A
 Frequencies --     37.5581                55.3104                56.7436
 Red. masses --      7.4412                 5.3100                10.2686
 Frc consts  --      0.0062                 0.0096                 0.0195
 IR Inten    --      0.1069                 0.4963                 1.7834

                      7                      8                      9
                      A                      A                      A
 Frequencies --     78.8324                88.0244                96.8335
 Red. masses --      5.9038                 5.8517                 7.3156
 Frc consts  --      0.0216                 0.0267                 0.0404
 IR Inten    --      0.2092                 0.3431                 0.3392

                     10                     11                     12
                      A                      A                      A
 Frequencies --    121.5274               130.1777               170.0289
 Red. masses --      3.8821                 5.8557                 6.1340
 Frc consts  --      0.0338                 0.0585                 0.1045
 IR Inten    --      1.4137                 0.1914                 2.3680

                     13                     14                     15
                      A                      A                      A
 Frequencies --    199.2007               212.0899               218.0914
 Red. masses --      6.0192                 4.5527                 1.1351
 Frc consts  --      0.1407                 0.1207                 0.0318
 IR Inten    --      2.3612                 1.4211                 0.4745

                     16                     17                     18
                      A                      A                      A
 Frequencies --    261.5605               283.4073               292.7381
 Red. masses --      1.1733                 1.0969                 3.2046
 Frc consts  --      0.0473                 0.0519                 0.1618
 IR Inten    --      0.7139                 0.2045                 1.9715

                     19                     20                     21
                      A                      A                      A
 Frequencies --    320.3630               330.9390               350.4803
 Red. masses --      4.6101                 3.2912                 6.4419
 Frc consts  --      0.2788                 0.2124                 0.4662
 IR Inten    --      1.5274                 7.6540                 0.6986

                     22                     23                     24
                      A                      A                      A
 Frequencies --    362.2524               366.5466               410.6373
 Red. masses --      2.5895                 4.5527                 1.4378
 Frc consts  --      0.2002                 0.3604                 0.1428
 IR Inten    --      4.1039                 3.1487                94.5458

                     25                     26                     27
                      A                      A                      A
 Frequencies --    420.3415               423.7764               435.0287
 Red. masses --      2.2852                 3.0444                 2.5548
 Frc consts  --      0.2379                 0.3221                 0.2849
 IR Inten    --     14.9019                 0.5897                 2.2374

                     28                     29                     30
                      A                      A                      A
 Frequencies --    443.3363               463.8735               467.9683
 Red. masses --      3.3197                 5.2894                 3.0564
 Frc consts  --      0.3844                 0.6706                 0.3944
 IR Inten    --      6.0895                11.7229                 8.1285

                     31                     32                     33
                      A                      A                      A
 Frequencies --    493.4526               512.5354               525.9765
 Red. masses --      3.0971                 3.1751                10.0846
 Frc consts  --      0.4443                 0.4914                 1.6438
 IR Inten    --      5.6831                 8.7147                 5.0055

                     34                     35                     36
                      A                      A                      A
 Frequencies --    568.1451               611.1055               629.0058
 Red. masses --      2.2407                 3.1167                 4.4179
 Frc consts  --      0.4261                 0.6858                 1.0298
 IR Inten    --     37.8896                15.4605                 9.8732

                     37                     38                     39
                      A                      A                      A
 Frequencies --    647.3962               651.6073               667.9826
 Red. masses --      2.0174                 5.4513                 6.0131
 Frc consts  --      0.4982                 1.3637                 1.5808
 IR Inten    --     98.8494                10.4704                28.0882

                     40                     41                     42
                      A                      A                      A
 Frequencies --    728.8324               746.1976               768.8936
 Red. masses --      4.2065                 3.6205                11.5877
 Frc consts  --      1.3165                 1.1878                 4.0363
 IR Inten    --     17.1910                12.3948                33.2674

                     43                     44                     45
                      A                      A                      A
 Frequencies --    790.2280               795.8343               830.3059
 Red. masses --      5.5752                 3.5128                 1.7136
 Frc consts  --      2.0512                 1.3108                 0.6960
 IR Inten    --      6.6975                 1.7528                27.5373

                     46                     47                     48
                      A                      A                      A
 Frequencies --    839.9959               851.3466               856.8667
 Red. masses --      1.3947                 4.9710                 3.5475
 Frc consts  --      0.5798                 2.1228                 1.5346
 IR Inten    --     10.9068                 1.0207                17.8155

                     49                     50                     51
                      A                      A                      A
 Frequencies --    897.0413               932.2601               935.7465
 Red. masses --      3.2307                 1.6349                 1.6164
 Frc consts  --      1.5317                 0.8372                 0.8339
 IR Inten    --      9.2094                 0.0170                 0.5703

                     52                     53                     54
                      A                      A                      A
 Frequencies --    963.2358               964.3704               976.5253
 Red. masses --      1.4192                 2.6171                 1.3576
 Frc consts  --      0.7758                 1.4340                 0.7628
 IR Inten    --      1.1871                11.6302                 0.1437

                     55                     56                     57
                      A                      A                      A
 Frequencies --    979.6155              1005.4103              1033.3725
 Red. masses --      1.1997                 3.2848                 2.8772
 Frc consts  --      0.6783                 1.9564                 1.8102
 IR Inten    --      0.1775                43.2463                 0.4666

                     58                     59                     60
                      A                      A                      A
 Frequencies --   1044.3058              1060.8056              1066.5967
 Red. masses --      2.8478                 1.4002                 1.5570
 Frc consts  --      1.8299                 0.9283                 1.0436
 IR Inten    --     52.7872                 0.9944                13.2366

                     61                     62                     63
                      A                      A                      A
 Frequencies --   1146.1608              1158.4544              1160.4092
 Red. masses --      1.4969                 2.6859                 3.0561
 Frc consts  --      1.1586                 2.1237                 2.4246
 IR Inten    --     50.3025                95.1247                94.7473

                     64                     65                     66
                      A                      A                      A
 Frequencies --   1169.5568              1202.8859              1216.7220
 Red. masses --      2.4619                 2.0923                 1.4522
 Frc consts  --      1.9841                 1.7837                 1.2666
 IR Inten    --     84.3205               228.2516                26.0601

                     67                     68                     69
                      A                      A                      A
 Frequencies --   1221.1490              1234.5173              1272.2783
 Red. masses --      1.1846                 2.4587                 1.7797
 Frc consts  --      1.0408                 2.2077                 1.6973
 IR Inten    --      2.6407                 1.5890                 8.6421

                     70                     71                     72
                      A                      A                      A
 Frequencies --   1273.1120              1285.6549              1323.8868
 Red. masses --      1.8249                 2.5790                 2.1766
 Frc consts  --      1.7427                 2.5116                 2.2476
 IR Inten    --     36.5249                25.8480               119.9379

                     73                     74                     75
                      A                      A                      A
 Frequencies --   1338.7899              1351.5754              1363.6988
 Red. masses --      2.1518                 1.7978                 2.2179
 Frc consts  --      2.2724                 1.9350                 2.4301
 IR Inten    --     13.8573                15.0058               144.9274

                     76                     77                     78
                      A                      A                      A
 Frequencies --   1371.1275              1378.2721              1408.7930
 Red. masses --      4.2300                 2.5037                 1.2868
 Frc consts  --      4.6854                 2.8023                 1.5048
 IR Inten    --    126.9144               103.4681                21.7058

                     79                     80                     81
                      A                      A                      A
 Frequencies --   1410.1016              1414.8076              1437.5270
 Red. masses --      1.4557                 1.5525                 1.2257
 Frc consts  --      1.7054                 1.8309                 1.4924
 IR Inten    --     63.7479               100.7293                22.0799

                     82                     83                     84
                      A                      A                      A
 Frequencies --   1458.3686              1475.1610              1478.1683
 Red. masses --      2.7174                 1.0452                 1.6937
 Frc consts  --      3.4052                 1.3401                 2.1804
 IR Inten    --      1.5160                 0.7634                55.5383

                     85                     86                     87
                      A                      A                      A
 Frequencies --   1494.0781              1495.6040              1501.9757
 Red. masses --      1.0480                 1.0515                 1.0703
 Frc consts  --      1.3784                 1.3858                 1.4226
 IR Inten    --      0.1518                 0.9777                10.7061

                     88                     89                     90
                      A                      A                      A
 Frequencies --   1502.9166              1512.9735              1535.7304
 Red. masses --      1.1058                 1.0525                 1.0570
 Frc consts  --      1.4716                 1.4195                 1.4687
 IR Inten    --     13.2272                 2.2034                26.4025

                     91                     92                     93
                      A                      A                      A
 Frequencies --   1545.7396              1617.7334              1657.8797
 Red. masses --      2.4472                 6.4470                 5.6891
 Frc consts  --      3.4450                 9.9408                 9.2130
 IR Inten    --    119.8077                 5.9943                26.8482

                     94                     95                     96
                      A                      A                      A
 Frequencies --   1783.2026              1814.9009              2250.4710
 Red. masses --      8.4204                10.4806                13.9831
 Frc consts  --     15.7756                20.3397                41.7254
 IR Inten    --    471.4729               234.1072               899.5091

                     97                     98                     99
                      A                      A                      A
 Frequencies --   3044.7874              3046.4813              3049.4085
 Red. masses --      1.0371                 1.0360                 1.0832
 Frc consts  --      5.6646                 5.6652                 5.9347
 IR Inten    --     21.5857                17.1494                 9.0361

                    100                    101                    102
                      A                      A                      A
 Frequencies --   3053.4163              3083.0970              3111.8788
 Red. masses --      1.0373                 1.0609                 1.1023
 Frc consts  --      5.6982                 5.9415                 6.2891
 IR Inten    --     19.6431                 8.1999                15.1818

                    103                    104                    105
                      A                      A                      A
 Frequencies --   3115.8989              3127.2590              3130.0871
 Red. masses --      1.1024                 1.1029                 1.1028
 Frc consts  --      6.3059                 6.3549                 6.3660
 IR Inten    --     16.5421                37.3586                36.7435

                    106                    107                    108
                      A                      A                      A
 Frequencies --   3133.4461              3156.3497              3159.4850
 Red. masses --      1.1043                 1.1009                 1.1004
 Frc consts  --      6.3885                 6.4621                 6.4719
 IR Inten    --      4.4698                 0.6100                 9.7596

                    109                    110                    111
                      A                      A                      A
 Frequencies --   3174.1475              3183.5161              3199.0668
 Red. masses --      1.0894                 1.0878                 1.0947
 Frc consts  --      6.4670                 6.4955                 6.6009
 IR Inten    --     13.1057                 7.0601                 4.6226

                    112                    113                    114
                      A                      A                      A
 Frequencies --   3209.2441              3673.4970              3756.5050
 Red. masses --      1.0937                 1.0781                 1.0645
 Frc consts  --      6.6370                 8.5721                 8.8508
 IR Inten    --      4.3933                46.6850                71.1317

 - Thermochemistry -
 -------------------
 Temperature   298.150 Kelvin.  Pressure   1.00000 Atm.
 Atom     1 has atomic number  6 and mass  12.00000

 Molecular mass:   306.13281 amu.
 Principal axes and moments of inertia in atomic units:
                           1         2         3
     Eigenvalues --  3873.87751********************
           X            0.99969   0.02454   0.00515
           Y           -0.02463   0.99952   0.01853
           Z           -0.00469  -0.01865   0.99981
 This molecule is an asymmetric top.
 Rotational symmetry number  1.
 Warning -- assumption of classical behavior for rotation
           may cause significant error
 Rotational temperatures (Kelvin)      0.02236     0.00713     0.00606
 Rotational constants (GHZ):           0.46587     0.14858     0.12622
 Zero-point vibrational energy     838622.2 (Joules/Mol)
                                  200.43552 (Kcal/Mol)
 Warning -- explicit consideration of  35 degrees of freedom as
           vibrations may cause significant error
 Vibrational temperatures:     18.88    29.18    41.25    54.04    79.58
          (Kelvin)             81.64   113.42   126.65   139.32   174.85
                              187.30   244.63   286.61   305.15   313.78
                              376.33   407.76   421.18   460.93   476.15
                              504.26   521.20   527.38   590.82   604.78
                              609.72   625.91   637.86   667.41   673.30
                              709.97   737.42   756.76   817.43   879.24
                              905.00   931.46   937.52   961.08  1048.63
                             1073.61  1106.27  1136.96  1145.03  1194.62
                             1208.57  1224.90  1232.84  1290.64  1341.31
                             1346.33  1385.88  1387.51  1405.00  1409.45
                             1446.56  1486.79  1502.52  1526.26  1534.59
                             1649.07  1666.76  1669.57  1682.73  1730.68
                             1750.59  1756.96  1776.20  1830.52  1831.72
                             1849.77  1904.78  1926.22  1944.62  1962.06
                             1972.75  1983.03  2026.94  2028.82  2035.59
                             2068.28  2098.27  2122.43  2126.75  2149.65
                             2151.84  2161.01  2162.36  2176.83  2209.57
                             2223.97  2327.56  2385.32  2565.63  2611.24
                             3237.93  4380.77  4383.21  4387.42  4393.19
                             4435.89  4477.30  4483.08  4499.43  4503.50
                             4508.33  4541.28  4545.79  4566.89  4580.37
                             4602.74  4617.39  5285.34  5404.77

 Zero-point correction=                           0.319414 (Hartree/Particle)
 Thermal correction to Energy=                    0.341458
 Thermal correction to Enthalpy=                  0.342402
 Thermal correction to Gibbs Free Energy=         0.265041
 Sum of electronic and zero-point Energies=          -1064.012477
 Sum of electronic and thermal Energies=             -1063.990433
 Sum of electronic and thermal Enthalpies=           -1063.989489
 Sum of electronic and thermal Free Energies=        -1064.066850

                     E (Thermal)             CV                S
                      KCal/Mol        Cal/Mol-Kelvin    Cal/Mol-Kelvin
 Total                  214.268             82.021            162.820
 Electronic               0.000              0.000              0.000
 Translational            0.889              2.981             43.053
 Rotational               0.889              2.981             34.863
 Vibrational            212.491             76.060             84.904
 Vibration     1          0.593              1.987              7.471
 Vibration     2          0.593              1.986              6.607
 Vibration     3          0.593              1.984              5.920
 Vibration     4          0.594              1.982              5.384
 Vibration     5          0.596              1.975              4.618
 Vibration     6          0.596              1.975              4.567
 Vibration     7          0.600              1.963              3.920
 Vibration     8          0.601              1.958              3.703
 Vibration     9          0.603              1.951              3.517
 Vibration    10          0.609              1.931              3.076
 Vibration    11          0.612              1.923              2.943
 Vibration    12          0.625              1.879              2.435
 Vibration    13          0.637              1.841              2.140
 Vibration    14          0.643              1.822              2.026
 Vibration    15          0.646              1.814              1.975
 Vibration    16          0.669              1.743              1.651
 Vibration    17          0.682              1.704              1.513
 Vibration    18          0.688              1.687              1.458
 Vibration    19          0.706              1.635              1.308
 Vibration    20          0.713              1.614              1.255
 Vibration    21          0.727              1.574              1.164
 Vibration    22          0.736              1.550              1.112
 Vibration    23          0.739              1.541              1.094
 Vibration    24          0.775              1.447              0.924
 Vibration    25          0.783              1.426              0.891
 Vibration    26          0.786              1.419              0.879
 Vibration    27          0.796              1.394              0.842
 Vibration    28          0.803              1.376              0.816
 Vibration    29          0.821              1.330              0.755
 Vibration    30          0.825              1.321              0.743
 Vibration    31          0.849              1.265              0.675
 Vibration    32          0.868              1.222              0.628
 Vibration    33          0.881              1.192              0.596
 Vibration    34          0.924              1.100              0.508
 Vibration    35          0.970              1.008              0.431

 Optimization completed.
    -- Stationary point found.
 Normal termination of Gaussian 16 at Sat Nov 12 19:00:05 2022.

 ----------------------------------------------------------------------
 # M062X/def2TZVP extrabasis empiricaldispersion=GD3 int=(grid=ultrafin
 e) nmr=giao pop=nbo guess=read geom=check
 ----------------------------------------------------------------------

 -------------
 Molecule Name
 -------------
 Structure from the checkpoint file:  "RW03_Azidobocphenylalanine_1.chk"
 Charge =  0 Multiplicity = 1

 SCF Done:  E(RM062X) =  -1064.21447378     A.U. after   14 cycles

      1  C    Isotropic =    26.2654   Anisotropy =   225.2106

      2  C    Isotropic =    32.5504   Anisotropy =   196.0674

      3  C    Isotropic =    42.9370   Anisotropy =   182.4054

      4  C    Isotropic =    22.6606   Anisotropy =   169.0852

      5  C    Isotropic =    47.9010   Anisotropy =   196.4309

      6  C    Isotropic =    28.9281   Anisotropy =   204.4607

      7  C    Isotropic =   145.8313   Anisotropy =    30.8164

      8  C    Isotropic =   122.4341   Anisotropy =    33.2002

      9  C    Isotropic =    -8.5172   Anisotropy =   123.7837

     10  C    Isotropic =    15.7510   Anisotropy =    77.1080

     11  C    Isotropic =    97.2486   Anisotropy =    82.4859

     12  C    Isotropic =   151.9592   Anisotropy =    48.7004

     13  C    Isotropic =   158.2240   Anisotropy =    42.3798

     14  C    Isotropic =   157.9213   Anisotropy =    42.5966

     15  O    Isotropic =  -161.7218   Anisotropy =   652.2793

     16  O    Isotropic =   107.0539   Anisotropy =   218.4454

     17  O    Isotropic =   -16.9424   Anisotropy =   431.1233

     18  O    Isotropic =   105.5007   Anisotropy =   113.8554

     19  N    Isotropic =   151.7290   Anisotropy =   122.1472

     20  H    Isotropic =    23.9912   Anisotropy =     9.2212

     21  H    Isotropic =    24.3620   Anisotropy =     6.9527

     22  H    Isotropic =    24.0152   Anisotropy =    10.0782

     23  H    Isotropic =    23.8400   Anisotropy =     9.4963

     24  H    Isotropic =    28.5758   Anisotropy =     7.0519

     25  H    Isotropic =    28.4255   Anisotropy =     6.4599

     26  H    Isotropic =    28.7436   Anisotropy =     6.2902

     27  H    Isotropic =    25.4954   Anisotropy =    11.4902

     28  H    Isotropic =    27.8263   Anisotropy =     7.7831

     29  H    Isotropic =    30.8558   Anisotropy =     9.1484

     30  H    Isotropic =    30.4604   Anisotropy =     6.0065

     31  H    Isotropic =    30.5028   Anisotropy =     6.7522

     32  H    Isotropic =    30.9088   Anisotropy =     9.6422

     33  H    Isotropic =    29.1409   Anisotropy =     6.3021

     34  H    Isotropic =    30.8005   Anisotropy =     7.3396

     35  H    Isotropic =    30.8122   Anisotropy =     9.4773

     36  H    Isotropic =    30.6530   Anisotropy =     6.5792

     37  H    Isotropic =    29.0251   Anisotropy =     6.3104

     38  N    Isotropic =   -55.3983   Anisotropy =   242.8870

     39  N    Isotropic =   -26.9319   Anisotropy =   559.9068

     40  N    Isotropic =   145.9642   Anisotropy =   217.5247

 Summary of Natural Population Analysis:

                                       Natural Population
                Natural  -----------------------------------------------
    Atom  No    Charge         Core      Valence    Rydberg      Total
 -----------------------------------------------------------------------
      C    1   -0.04385      1.99915     4.02524    0.01946     6.04385
      C    2   -0.19618      1.99915     4.17992    0.01710     6.19618
      C    3   -0.21249      1.99913     4.19520    0.01816     6.21249
      C    4    0.10964      1.99886     3.87231    0.01918     5.89036
      C    5   -0.24513      1.99910     4.22867    0.01736     6.24513
      C    6   -0.18454      1.99915     4.16811    0.01729     6.18454
      C    7   -0.42640      1.99934     4.41018    0.01688     6.42640
      C    8   -0.12587      1.99920     4.10509    0.02158     6.12587
      C    9    0.81005      1.99947     3.15478    0.03571     5.18995
      C   10    0.91634      1.99942     3.04470    0.03954     5.08366
      C   11    0.28748      1.99932     3.69453    0.01867     5.71252
      C   12   -0.61035      1.99940     4.59865    0.01230     6.61035
      C   13   -0.63687      1.99939     4.62555    0.01193     6.63687
      C   14   -0.63771      1.99939     4.62646    0.01187     6.63771
      O   15   -0.59486      1.99977     6.56515    0.02994     8.59486
      O   16   -0.68517      1.99977     6.65938    0.02602     8.68517
      O   17   -0.65620      1.99976     6.62725    0.02919     8.65620
      O   18   -0.57880      1.99973     6.55919    0.01989     8.57880
      N   19   -0.64850      1.99942     5.62118    0.02790     7.64850
      H   20    0.21470      0.00000     0.78411    0.00118     0.78530
      H   21    0.22961      0.00000     0.76921    0.00118     0.77039
      H   22    0.22010      0.00000     0.77816    0.00175     0.77990
      H   23    0.21749      0.00000     0.78078    0.00173     0.78251
      H   24    0.23659      0.00000     0.76211    0.00130     0.76341
      H   25    0.23296      0.00000     0.76490    0.00214     0.76704
      H   26    0.23676      0.00000     0.76223    0.00101     0.76324
      H   27    0.49921      0.00000     0.49852    0.00226     0.50079
      H   28    0.41999      0.00000     0.57853    0.00148     0.58001
      H   29    0.21167      0.00000     0.78755    0.00078     0.78833
      H   30    0.21575      0.00000     0.78321    0.00104     0.78425
      H   31    0.21808      0.00000     0.78076    0.00115     0.78192
      H   32    0.21248      0.00000     0.78678    0.00074     0.78752
      H   33    0.24074      0.00000     0.75826    0.00100     0.75926
      H   34    0.21244      0.00000     0.78646    0.00111     0.78756
      H   35    0.21421      0.00000     0.78506    0.00073     0.78579
      H   36    0.20928      0.00000     0.78968    0.00105     0.79072
      H   37    0.24044      0.00000     0.75856    0.00100     0.75956
      N   38   -0.03228      1.99964     5.00681    0.02583     7.03228
      N   39    0.25234      1.99954     4.72133    0.02679     6.74766
      N   40   -0.34314      1.99938     5.30335    0.04040     7.34314
 =======================================================================
   * Total *    0.00000     43.98650   117.48791    0.52560   162.00000

 Normal termination of Gaussian 16 at Sat Nov 12 19:55:14 2022.
 Gaussian 16:  ES64L-G16RevC.01  3-Jul-2019

 ----------------------------------------------------------------------
 # M062X/def2TZVP extrabasis empiricaldispersion=GD3 int=(grid=ultrafin
 e) prop=(efg) pop=chelpg guess=read geom=check
 ----------------------------------------------------------------------

 -------------
 Molecule Name
 -------------
 Structure from the checkpoint file:  "RW03_Azidobocphenylalanine_1.chk"
 Charge =  0 Multiplicity = 1

                         Standard orientation:
 ---------------------------------------------------------------------
 Center     Atomic      Atomic             Coordinates (Angstroms)
 Number     Number       Type             X           Y           Z
 ---------------------------------------------------------------------
      1          6           0        1.316950    1.065264   -0.644763
      2          6           0        2.344074    2.015015   -0.537690
      3          6           0        3.662140    1.634324   -0.294589
      4          6           0        3.978023    0.277457   -0.152097
      5          6           0        2.967362   -0.688940   -0.257518
      6          6           0        1.654128   -0.288460   -0.501267
      7          6           0       -0.115527    1.489211   -0.858134
      8          6           0       -0.866089    1.675301    0.483425
      9          6           0       -2.279149    2.221541    0.242714
     10          6           0       -1.505297   -0.683236    1.065510
     11          6           0       -3.122439   -1.652872   -0.533240
     12          6           0       -3.798224   -1.020744   -1.750855
     13          6           0       -4.151580   -2.034545    0.533289
     14          6           0       -2.239165   -2.833778   -0.944165
     15          8           0       -2.646846    2.737376   -0.790194
     16          8           0       -3.059295    2.135175    1.342458
     17          8           0       -1.378628   -1.690212    1.744670
     18          8           0       -2.275972   -0.549749   -0.037785
     19          7           0       -0.863549    0.496309    1.333152
     20          1           0        2.111225    3.070814   -0.653827
     21          1           0        4.453915    2.372350   -0.218710
     22          1           0        3.198507   -1.744925   -0.150742
     23          1           0        0.878984   -1.045293   -0.578994
     24          1           0       -0.165658    2.433491   -1.406624
     25          1           0       -0.658962    0.747190   -1.447794
     26          1           0       -0.354771    2.457007    1.059481
     27          1           0       -3.916312    2.533606    1.115062
     28          1           0       -0.214576    0.447369    2.103034
     29          1           0       -4.471609   -1.744281   -2.220120
     30          1           0       -3.051955   -0.708387   -2.487263
     31          1           0       -4.376865   -0.140493   -1.456534
     32          1           0       -4.856536   -2.759056    0.112616
     33          1           0       -3.668590   -2.476062    1.405823
     34          1           0       -4.713996   -1.149633    0.847489
     35          1           0       -2.857000   -3.598333   -1.426313
     36          1           0       -1.480537   -2.505899   -1.662622
     37          1           0       -1.744289   -3.273980   -0.077567
     38          7           0        6.093559   -2.262926    0.352285
     39          7           0        5.667833   -1.212529    0.218036
     40          7           0        5.345546   -0.025058    0.091768
 ---------------------------------------------------------------------

 SCF Done:  E(RM062X) =  -1064.21447378     A.U. after    1 cycles

 The electronic state is 1-A.
 Alpha  occ. eigenvalues --  -19.68708 -19.67074 -19.63431 -19.60294 -14.94966
 Alpha  occ. eigenvalues --  -14.85125 -14.81708 -14.78340 -10.69950 -10.69435
 Alpha  occ. eigenvalues --  -10.61861 -10.61759 -10.60806 -10.56259 -10.56067
 Alpha  occ. eigenvalues --  -10.55876 -10.55835 -10.55716 -10.55450 -10.53473
 Alpha  occ. eigenvalues --  -10.53140 -10.52973  -1.27907  -1.24854  -1.23234
 Alpha  occ. eigenvalues --   -1.15298  -1.13712  -1.10759  -1.05340  -0.97802
 Alpha  occ. eigenvalues --   -0.91932  -0.90429  -0.86275  -0.85731  -0.79320
 Alpha  occ. eigenvalues --   -0.79258  -0.79118  -0.74367  -0.72818  -0.71141
 Alpha  occ. eigenvalues --   -0.69001  -0.65101  -0.63493  -0.61846  -0.61267
 Alpha  occ. eigenvalues --   -0.60897  -0.60276  -0.59318  -0.57075  -0.56713
 Alpha  occ. eigenvalues --   -0.55818  -0.54862  -0.54783  -0.53840  -0.53408
 Alpha  occ. eigenvalues --   -0.51945  -0.51850  -0.51405  -0.50181  -0.49803
 Alpha  occ. eigenvalues --   -0.48965  -0.47811  -0.46198  -0.46152  -0.45722
 Alpha  occ. eigenvalues --   -0.45049  -0.43730  -0.43418  -0.42545  -0.42204
 Alpha  occ. eigenvalues --   -0.41862  -0.41142  -0.40462  -0.38360  -0.38072
 Alpha  occ. eigenvalues --   -0.37742  -0.37271  -0.35523  -0.33425  -0.32222
 Alpha  occ. eigenvalues --   -0.28085
 Alpha virt. eigenvalues --   -0.01106  -0.00359   0.00302   0.01765   0.03492
 Alpha virt. eigenvalues --    0.04626   0.05351   0.05801   0.06026   0.06701
 Alpha virt. eigenvalues --    0.07093   0.07945   0.08363   0.09083   0.09692

 Mulliken charges:
               1
     1  C    0.148467
     2  C   -0.152965
     3  C   -0.201186
     4  C    0.273970
     5  C   -0.284288
     6  C   -0.166713
     7  C   -0.519521
     8  C   -0.019427
     9  C    0.346196
    10  C    0.433847
    11  C    0.160523
    12  C   -0.415125
    13  C   -0.429349
    14  C   -0.444684
    15  O   -0.372772
    16  O   -0.402042
    17  O   -0.499175
    18  O   -0.292394
    19  N   -0.406098
    20  H    0.158005
    21  H    0.173410
    22  H    0.158559
    23  H    0.192057
    24  H    0.197469
    25  H    0.221821
    26  H    0.193784
    27  H    0.355608
    28  H    0.297121
    29  H    0.161706
    30  H    0.154786
    31  H    0.155957
    32  H    0.155821
    33  H    0.184588
    34  H    0.147640
    35  H    0.159123
    36  H    0.147357
    37  H    0.188198
    38  N   -0.237422
    39  N   -0.104195
    40  N    0.181344
 Sum of Mulliken charges =  -0.00000

 Dipole moment (field-independent basis, Debye):
    X=             -1.8759    Y=              1.3532    Z=             -0.5577  Tot=              2.3793
 Quadrupole moment (field-independent basis, Debye-Ang):
   XX=           -129.7934   YY=           -128.4653   ZZ=           -135.4371
   XY=              6.7676   XZ=              0.1795   YZ=             11.5669

 ESP charges:
               1
     1  C    0.172619
     2  C   -0.191931
     3  C   -0.185114
     4  C    0.352710
     5  C   -0.266658
     6  C   -0.127991
     7  C   -0.365016
     8  C    0.398927
     9  C    0.551304
    10  C    0.783467
    11  C    0.679623
    12  C   -0.404706
    13  C   -0.417974
    14  C   -0.393527
    15  O   -0.525917
    16  O   -0.602771
    17  O   -0.600731
    18  O   -0.398046
    19  N   -0.619533
    20  H    0.122764
    21  H    0.148195
    22  H    0.137992
    23  H    0.120684
    24  H    0.111781
    25  H    0.096973
    26  H    0.026417
    27  H    0.442567
    28  H    0.295175
    29  H    0.091811
    30  H    0.100977
    31  H    0.103906
    32  H    0.088478
    33  H    0.126189
    34  H    0.087993
    35  H    0.084504
    36  H    0.074843
    37  H    0.119068
    38  N   -0.327757
    39  N    0.656150
    40  N   -0.547445
 Sum of ESP charges =   0.00000

 Normal termination of Gaussian 16 at Sat Nov 12 19:57:30 2022.
